
  ___ ___ ___ _ _ _  
 |   |   |_  | | | | 
 | | | | | . | | | | 
 |__ |  _|___|_____|  25.7.0
 |___|_|             

User:   stepan@C3MP-C019202L
Date:   Wed Oct 22 02:31:37 2025
Arch:   x86_64
Pid:    308591
CWD:    /home/stepan/github/WannierBerri-tutorial/tutorials/8_GPAW/8_1_diamond
Python: 3.12.12
gpaw:   /home/stepan/github/WannierBerri-tutorial/.conda/lib/python3.12/site-packages/gpaw
_gpaw:  /home/stepan/github/WannierBerri-tutorial/.conda/lib/python3.12/site-packages/
        _gpaw.cpython-312-x86_64-linux-gnu.so
ase:    /home/stepan/github/WannierBerri-tutorial/.conda/lib/python3.12/site-packages/ase (version 3.26.0)
numpy:  /home/stepan/github/WannierBerri-tutorial/.conda/lib/python3.12/site-packages/numpy (version 2.3.4)
scipy:  /home/stepan/github/WannierBerri-tutorial/.conda/lib/python3.12/site-packages/scipy (version 1.16.2)
libxc:  5.2.3
units:  Angstrom and eV
cores: 1
OpenMP: False
OMP_NUM_THREADS: 1

Input parameters:
  convergence: {density: 1e-06}
  kpts: {gamma: True,
         size: [8, 8, 8]}
  mixer: {backend: pulay,
          beta: 0.25,
          method: sum,
          nmaxold: 8,
          weight: 100}
  mode: {ecut: 500.0,
         name: pw}
  symmetry: {symmorphic: False}
  xc: PBE

System changes: positions, numbers, cell, pbc, initial_charges, initial_magmoms 

Initialize ...

species:
  C:
    name: Carbon
    id: 4aa54d4b901d75f77cc0ea3eec22967b
    Z: 6.0
    valence: 4
    core: 2
    charge: 0.0
    file: /home/stepan/gpaw-data/gpaw-setups-24.11.0/C.PBE.gz
    compensation charges: {type: gauss,
                           rc: 0.20,
                           lmax: 2}
    cutoffs: {filter: 1.14,
              core: 1.14}
    projectors:
      #              energy  rcut
      - 2s(2.00)   -13.751   0.635
      - 2p(2.00)    -5.284   0.635
      -  s          13.461   0.635
      -  p          21.927   0.635
      -  d           0.000   0.635
  
    # Using partial waves for C as LCAO basis

Reference energy: -2055.256231  # eV

Spin-paired calculation

Convergence criteria:
 Maximum [total energy] change in last 3 cyles: 0.0005 eV / valence electron
 Maximum integral of absolute [dens]ity change: 1e-06 electrons / valence electron
 Maximum integral of absolute [eigenst]ate change: 4e-08 eV^2 / valence electron
 Maximum number of scf [iter]ations: 333
 (Square brackets indicate name in SCF output, whereas a 'c' in
 the SCF output indicates the quantity has converged.)

Symmetries present (total): 48
Symmetries with fractional translations: 24

  ( 1  0  0) + (   0)  ( 1  0  0) + (   0)  ( 1  0 -1) + (   0)
  ( 0  1  0) + (   0)  ( 0  0  1) + (   0)  ( 0  1 -1) + (   0)
  ( 0  0  1) + (   0)  ( 0  1  0) + (   0)  ( 0  0 -1) + (   0)

  ( 1  0 -1) + (   0)  ( 1 -1  0) + (   0)  ( 1 -1  0) + (   0)
  ( 0  0 -1) + (   0)  ( 0 -1  1) + (   0)  ( 0 -1  0) + (   0)
  ( 0  1 -1) + (   0)  ( 0 -1  0) + (   0)  ( 0 -1  1) + (   0)

  ( 0  1  0) + (   0)  ( 0  1  0) + (   0)  ( 0  1 -1) + (   0)
  ( 1  0  0) + (   0)  ( 0  0  1) + (   0)  ( 1  0 -1) + (   0)
  ( 0  0  1) + (   0)  ( 1  0  0) + (   0)  ( 0  0 -1) + (   0)

  ( 0  1 -1) + (   0)  ( 0  0  1) + (   0)  ( 0  0  1) + (   0)
  ( 0  0 -1) + (   0)  ( 1  0  0) + (   0)  ( 0  1  0) + (   0)
  ( 1  0 -1) + (   0)  ( 0  1  0) + (   0)  ( 1  0  0) + (   0)

  ( 0  0 -1) + (   0)  ( 0  0 -1) + (   0)  ( 0 -1  1) + (   0)
  ( 1  0 -1) + (   0)  ( 0  1 -1) + (   0)  ( 1 -1  0) + (   0)
  ( 0  1 -1) + (   0)  ( 1  0 -1) + (   0)  ( 0 -1  0) + (   0)

  ( 0 -1  1) + (   0)  ( 0 -1  0) + (   0)  ( 0 -1  0) + (   0)
  ( 0 -1  0) + (   0)  ( 1 -1  0) + (   0)  ( 0 -1  1) + (   0)
  ( 1 -1  0) + (   0)  ( 0 -1  1) + (   0)  ( 1 -1  0) + (   0)

  (-1  1  0) + (   0)  (-1  1  0) + (   0)  (-1  0  1) + (   0)
  (-1  0  1) + (   0)  (-1  0  0) + (   0)  (-1  1  0) + (   0)
  (-1  0  0) + (   0)  (-1  0  1) + (   0)  (-1  0  0) + (   0)

  (-1  0  1) + (   0)  (-1  0  0) + (   0)  (-1  0  0) + (   0)
  (-1  0  0) + (   0)  (-1  1  0) + (   0)  (-1  0  1) + (   0)
  (-1  1  0) + (   0)  (-1  0  1) + (   0)  (-1  1  0) + (   0)

  ( 1  0  0) + (-1/4)  ( 1  0  0) + (-1/4)  ( 1  0 -1) + (-1/4)
  ( 1  0 -1) + (-1/4)  ( 1 -1  0) + (-1/4)  ( 1  0  0) + (-1/4)
  ( 1 -1  0) + (-1/4)  ( 1  0 -1) + (-1/4)  ( 1 -1  0) + (-1/4)

  ( 1  0 -1) + (-1/4)  ( 1 -1  0) + (-1/4)  ( 1 -1  0) + (-1/4)
  ( 1 -1  0) + (-1/4)  ( 1  0  0) + (-1/4)  ( 1  0 -1) + (-1/4)
  ( 1  0  0) + (-1/4)  ( 1  0 -1) + (-1/4)  ( 1  0  0) + (-1/4)

  ( 0  1  0) + (-1/4)  ( 0  1  0) + (-1/4)  ( 0  1 -1) + (-1/4)
  ( 0  1 -1) + (-1/4)  (-1  1  0) + (-1/4)  ( 0  1  0) + (-1/4)
  (-1  1  0) + (-1/4)  ( 0  1 -1) + (-1/4)  (-1  1  0) + (-1/4)

  ( 0  1 -1) + (-1/4)  ( 0  0  1) + (-1/4)  ( 0  0  1) + (-1/4)
  (-1  1  0) + (-1/4)  ( 0 -1  1) + (-1/4)  (-1  0  1) + (-1/4)
  ( 0  1  0) + (-1/4)  (-1  0  1) + (-1/4)  ( 0 -1  1) + (-1/4)

  ( 0  0 -1) + (-1/4)  ( 0  0 -1) + (-1/4)  ( 0 -1  1) + (-1/4)
  ( 0 -1  0) + (-1/4)  (-1  0  0) + (-1/4)  ( 0  0  1) + (-1/4)
  (-1  0  0) + (-1/4)  ( 0 -1  0) + (-1/4)  (-1  0  1) + (-1/4)

  ( 0 -1  1) + (-1/4)  ( 0 -1  0) + (-1/4)  ( 0 -1  0) + (-1/4)
  (-1  0  1) + (-1/4)  ( 0  0 -1) + (-1/4)  (-1  0  0) + (-1/4)
  ( 0  0  1) + (-1/4)  (-1  0  0) + (-1/4)  ( 0  0 -1) + (-1/4)

  (-1  1  0) + (-1/4)  (-1  1  0) + (-1/4)  (-1  0  1) + (-1/4)
  ( 0  1  0) + (-1/4)  ( 0  1 -1) + (-1/4)  ( 0  0  1) + (-1/4)
  ( 0  1 -1) + (-1/4)  ( 0  1  0) + (-1/4)  ( 0 -1  1) + (-1/4)

  (-1  0  1) + (-1/4)  (-1  0  0) + (-1/4)  (-1  0  0) + (-1/4)
  ( 0 -1  1) + (-1/4)  ( 0  0 -1) + (-1/4)  ( 0 -1  0) + (-1/4)
  ( 0  0  1) + (-1/4)  ( 0 -1  0) + (-1/4)  ( 0  0 -1) + (-1/4)

512 k-points: 8 x 8 x 8 Monkhorst-Pack grid + [1/16,1/16,1/16]
29 k-points in the irreducible part of the Brillouin zone
       k-points in crystal coordinates                weights
   0:     0.00000000    0.00000000    0.00000000          1/512
   1:     0.12500000    0.12500000    0.00000000          6/512
   2:     0.12500000    0.12500000    0.12500000          8/512
   3:     0.25000000    0.12500000    0.12500000         12/512
   4:     0.25000000    0.25000000    0.00000000          6/512
   5:     0.25000000    0.25000000    0.12500000         24/512
   6:     0.25000000    0.25000000    0.25000000          8/512
   7:     0.37500000    0.25000000   -0.37500000         24/512
   8:     0.37500000    0.25000000    0.12500000         24/512
   9:     0.37500000    0.25000000    0.25000000         24/512
          ...
  28:     0.50000000    0.50000000    0.50000000          4/512

Wave functions: Plane wave expansion
  Cutoff energy: 500.000 eV
  Number of coefficients (min, max): 181, 222
  Pulay-stress correction: 0.000000 eV/Ang^3 (de/decut=0.000000)
  Using Numpy's FFT
  ScaLapack parameters: grid=1x1, blocksize=None
  Wavefunction extrapolation:
    Improved wavefunction reuse through dual PAW basis 

Occupation numbers: Fermi-Dirac:
  width: 0.1000  # eV
 

Eigensolver
   Davidson(niter=2) 

Densities:
  Coarse grid: 12*12*12 grid
  Fine grid: 24*24*24 grid
  Total Charge: 0.000000 

Density mixing:
  Method: separate
  Backend: pulay
  Linear mixing parameter: 0.25
  old densities: 8
  Damping of long wavelength oscillations: 100 

Hamiltonian:
  XC and Coulomb potentials evaluated on a 24*24*24 grid
  Using the PBE Exchange-Correlation functional
  External potential:
    NoExternalPotential
 

XC parameters: PBE with 2 nearest neighbor stencil

Memory estimate:
  Process memory now: 181.47 MiB
  Calculator: 2.76 MiB
    Density: 0.78 MiB
      Arrays: 0.34 MiB
      Localized functions: 0.23 MiB
      Mixer: 0.21 MiB
    Hamiltonian: 0.23 MiB
      Arrays: 0.22 MiB
      XC: 0.00 MiB
      Poisson: 0.00 MiB
      vbar: 0.00 MiB
    Wavefunctions: 1.75 MiB
      Arrays psit_nG: 0.79 MiB
      Eigensolver: 0.05 MiB
      Projections: 0.09 MiB
      Projectors: 0.66 MiB
      PW-descriptor: 0.16 MiB

Total number of cores used: 1

Number of atoms: 2
Number of atomic orbitals: 8
Number of bands in calculation: 8
Number of valence electrons: 8
Bands to converge: occupied

... initialized

Initializing position-dependent things.

Density initialized from atomic densities
Creating initial wave functions:
  8 bands from LCAO basis set

                   
                   
                   
                   
          C        
       C           
                   
                   
                   
                   

Atomic positions and initial magnetic moments

Positions:
   0 C      0.000000    0.000000    0.000000    ( 0.0000,  0.0000,  0.0000)
   1 C      0.806750    0.806750    0.806750    ( 0.0000,  0.0000,  0.0000)

Unit cell:
           periodic     x           y           z      points  spacing
  1. axis:    yes    0.000000    1.613500    1.613500    12     0.1553
  2. axis:    yes    1.613500    0.000000    1.613500    12     0.1553
  3. axis:    yes    1.613500    1.613500    0.000000    12     0.1553

  Lengths:   2.281834   2.281834   2.281834
  Angles:   60.000000  60.000000  60.000000

Effective grid spacing dv^(1/3) = 0.1694

     iter     time        total  log10-change:
                         energy   eigst   dens
iter:   1 02:31:37   -17.527712
iter:   2 02:31:38   -16.909382   -1.78  -0.75
iter:   3 02:31:38   -16.457361   -1.21  -0.90
iter:   4 02:31:38   -16.462155   -3.10  -1.83
iter:   5 02:31:38   -16.461453   -3.58  -2.09
iter:   6 02:31:38   -16.461474c  -4.65  -3.27
iter:   7 02:31:38   -16.461446c  -5.73  -3.03
iter:   8 02:31:38   -16.461446c  -8.21c -4.42
iter:   9 02:31:39   -16.461446c  -8.82c -4.62
iter:  10 02:31:39   -16.461446c -10.01c -5.65
iter:  11 02:31:39   -16.461446c -10.99c -5.63
iter:  12 02:31:39   -16.461446c -12.41c -6.64c

Converged after 12 iterations.

Dipole moment: (-1.857210, -1.857210, -1.857210) |e|*Ang

Energy contributions relative to reference atoms: (reference = -2055.256231)

Kinetic:        +52.030106
Potential:      -41.548702
External:        +0.000000
XC:             -26.955317
Entropy (-ST):   -0.000000
Local:           +0.012466
SIC:             +0.000000
--------------------------
Free energy:    -16.461446
Extrapolated:   -16.461446

Showing only first 2 kpts
 Kpt  Band  Eigenvalues  Occupancy
  0     2     17.74413    2.00000
  0     3     17.74430    2.00000
  0     4     24.17783    0.00000
  0     5     24.17783    0.00000

  1     2     15.34461    2.00000
  1     3     16.37597    2.00000
  1     4     23.77305    0.00000
  1     5     27.24914    0.00000


Fermi level: 19.61555

Gap: 4.846 eV
Transition (v -> c):
  (s=0, k=0, n=3, [0.00, 0.00, 0.00]) -> (s=0, k=12, n=4, [0.38, 0.38, 0.00])
Direct/indirect transitions are different
Direct gap: 6.434 eV
Transition at: (s=0, k=0, n=3, [0.00, 0.00, 0.00])
