
  ___ ___ ___ _ _ _  
 |   |   |_  | | | | 
 | | | | | . | | | | 
 |__ |  _|___|_____|  25.7.0
 |___|_|             

User:   stepan@C3MP-C019202L
Date:   Wed Oct 22 02:36:18 2025
Arch:   x86_64
Pid:    308591
CWD:    /home/stepan/github/WannierBerri-tutorial/tutorials/8_GPAW/8_1_diamond
Python: 3.12.12
gpaw:   /home/stepan/github/WannierBerri-tutorial/.conda/lib/python3.12/site-packages/gpaw
_gpaw:  /home/stepan/github/WannierBerri-tutorial/.conda/lib/python3.12/site-packages/
        _gpaw.cpython-312-x86_64-linux-gnu.so
ase:    /home/stepan/github/WannierBerri-tutorial/.conda/lib/python3.12/site-packages/ase (version 3.26.0)
numpy:  /home/stepan/github/WannierBerri-tutorial/.conda/lib/python3.12/site-packages/numpy (version 2.3.4)
scipy:  /home/stepan/github/WannierBerri-tutorial/.conda/lib/python3.12/site-packages/scipy (version 1.16.2)
libxc:  5.2.3
units:  Angstrom and eV
cores: 1
OpenMP: False
OMP_NUM_THREADS: 1

Input parameters:
  convergence: {bands: 20}
  gpts: [12 12 12]
  kpts: [[0.   0.   0.  ],
         [0.   0.   0.25],
         [0.   0.   0.5 ],
         ...,
         [0.   0.25 0.75],
         [0.   0.5  0.5 ],
         [0.25 0.5  0.75]]
  mixer: {backend: pulay,
          beta: 0.25,
          method: sum,
          nmaxold: 8,
          weight: 100}
  mode: {ecut: 500.0,
         name: pw}
  nbands: 20
  symmetry: {symmorphic: False}
  xc: PBE

Initialize ...

species:
  C:
    name: Carbon
    id: 4aa54d4b901d75f77cc0ea3eec22967b
    Z: 6.0
    valence: 4
    core: 2
    charge: 0.0
    file: /home/stepan/gpaw-data/gpaw-setups-24.11.0/C.PBE.gz
    compensation charges: {type: gauss,
                           rc: 0.20,
                           lmax: 2}
    cutoffs: {filter: 1.14,
              core: 1.14}
    projectors:
      #              energy  rcut
      - 2s(2.00)   -13.751   0.635
      - 2p(2.00)    -5.284   0.635
      -  s          13.461   0.635
      -  p          21.927   0.635
      -  d           0.000   0.635
  
    # Using partial waves for C as LCAO basis

Reference energy: -2055.256231  # eV

Spin-paired calculation

Convergence criteria:
 Maximum [total energy] change in last 3 cyles: 0.0005 eV / valence electron
 Maximum integral of absolute [dens]ity change: 0.0001 electrons / valence electron
 Maximum integral of absolute [eigenst]ate change: 4e-08 eV^2 / valence electron
 Maximum number of scf [iter]ations: 333
 (Square brackets indicate name in SCF output, whereas a 'c' in
 the SCF output indicates the quantity has converged.)

Symmetries present (total): 48
Symmetries with fractional translations: 24

  ( 1  0  0) + (   0)  ( 1  0  0) + (   0)  ( 1  0 -1) + (   0)
  ( 0  1  0) + (   0)  ( 0  0  1) + (   0)  ( 0  1 -1) + (   0)
  ( 0  0  1) + (   0)  ( 0  1  0) + (   0)  ( 0  0 -1) + (   0)

  ( 1  0 -1) + (   0)  ( 1 -1  0) + (   0)  ( 1 -1  0) + (   0)
  ( 0  0 -1) + (   0)  ( 0 -1  1) + (   0)  ( 0 -1  0) + (   0)
  ( 0  1 -1) + (   0)  ( 0 -1  0) + (   0)  ( 0 -1  1) + (   0)

  ( 0  1  0) + (   0)  ( 0  1  0) + (   0)  ( 0  1 -1) + (   0)
  ( 1  0  0) + (   0)  ( 0  0  1) + (   0)  ( 1  0 -1) + (   0)
  ( 0  0  1) + (   0)  ( 1  0  0) + (   0)  ( 0  0 -1) + (   0)

  ( 0  1 -1) + (   0)  ( 0  0  1) + (   0)  ( 0  0  1) + (   0)
  ( 0  0 -1) + (   0)  ( 1  0  0) + (   0)  ( 0  1  0) + (   0)
  ( 1  0 -1) + (   0)  ( 0  1  0) + (   0)  ( 1  0  0) + (   0)

  ( 0  0 -1) + (   0)  ( 0  0 -1) + (   0)  ( 0 -1  1) + (   0)
  ( 1  0 -1) + (   0)  ( 0  1 -1) + (   0)  ( 1 -1  0) + (   0)
  ( 0  1 -1) + (   0)  ( 1  0 -1) + (   0)  ( 0 -1  0) + (   0)

  ( 0 -1  1) + (   0)  ( 0 -1  0) + (   0)  ( 0 -1  0) + (   0)
  ( 0 -1  0) + (   0)  ( 1 -1  0) + (   0)  ( 0 -1  1) + (   0)
  ( 1 -1  0) + (   0)  ( 0 -1  1) + (   0)  ( 1 -1  0) + (   0)

  (-1  1  0) + (   0)  (-1  1  0) + (   0)  (-1  0  1) + (   0)
  (-1  0  1) + (   0)  (-1  0  0) + (   0)  (-1  1  0) + (   0)
  (-1  0  0) + (   0)  (-1  0  1) + (   0)  (-1  0  0) + (   0)

  (-1  0  1) + (   0)  (-1  0  0) + (   0)  (-1  0  0) + (   0)
  (-1  0  0) + (   0)  (-1  1  0) + (   0)  (-1  0  1) + (   0)
  (-1  1  0) + (   0)  (-1  0  1) + (   0)  (-1  1  0) + (   0)

  ( 1  0  0) + (-1/4)  ( 1  0  0) + (-1/4)  ( 1  0 -1) + (-1/4)
  ( 1  0 -1) + (-1/4)  ( 1 -1  0) + (-1/4)  ( 1  0  0) + (-1/4)
  ( 1 -1  0) + (-1/4)  ( 1  0 -1) + (-1/4)  ( 1 -1  0) + (-1/4)

  ( 1  0 -1) + (-1/4)  ( 1 -1  0) + (-1/4)  ( 1 -1  0) + (-1/4)
  ( 1 -1  0) + (-1/4)  ( 1  0  0) + (-1/4)  ( 1  0 -1) + (-1/4)
  ( 1  0  0) + (-1/4)  ( 1  0 -1) + (-1/4)  ( 1  0  0) + (-1/4)

  ( 0  1  0) + (-1/4)  ( 0  1  0) + (-1/4)  ( 0  1 -1) + (-1/4)
  ( 0  1 -1) + (-1/4)  (-1  1  0) + (-1/4)  ( 0  1  0) + (-1/4)
  (-1  1  0) + (-1/4)  ( 0  1 -1) + (-1/4)  (-1  1  0) + (-1/4)

  ( 0  1 -1) + (-1/4)  ( 0  0  1) + (-1/4)  ( 0  0  1) + (-1/4)
  (-1  1  0) + (-1/4)  ( 0 -1  1) + (-1/4)  (-1  0  1) + (-1/4)
  ( 0  1  0) + (-1/4)  (-1  0  1) + (-1/4)  ( 0 -1  1) + (-1/4)

  ( 0  0 -1) + (-1/4)  ( 0  0 -1) + (-1/4)  ( 0 -1  1) + (-1/4)
  ( 0 -1  0) + (-1/4)  (-1  0  0) + (-1/4)  ( 0  0  1) + (-1/4)
  (-1  0  0) + (-1/4)  ( 0 -1  0) + (-1/4)  (-1  0  1) + (-1/4)

  ( 0 -1  1) + (-1/4)  ( 0 -1  0) + (-1/4)  ( 0 -1  0) + (-1/4)
  (-1  0  1) + (-1/4)  ( 0  0 -1) + (-1/4)  (-1  0  0) + (-1/4)
  ( 0  0  1) + (-1/4)  (-1  0  0) + (-1/4)  ( 0  0 -1) + (-1/4)

  (-1  1  0) + (-1/4)  (-1  1  0) + (-1/4)  (-1  0  1) + (-1/4)
  ( 0  1  0) + (-1/4)  ( 0  1 -1) + (-1/4)  ( 0  0  1) + (-1/4)
  ( 0  1 -1) + (-1/4)  ( 0  1  0) + (-1/4)  ( 0 -1  1) + (-1/4)

  (-1  0  1) + (-1/4)  (-1  0  0) + (-1/4)  (-1  0  0) + (-1/4)
  ( 0 -1  1) + (-1/4)  ( 0  0 -1) + (-1/4)  ( 0 -1  0) + (-1/4)
  ( 0  0  1) + (-1/4)  ( 0 -1  0) + (-1/4)  ( 0  0 -1) + (-1/4)
Note: your k-points are not as symmetric as your crystal!

8 k-points
8 k-points in the irreducible part of the Brillouin zone
       k-points in crystal coordinates                weights
   0:     0.00000000    0.00000000    0.00000000       0.12500000
   1:     0.00000000    0.00000000    0.25000000       0.12500000
   2:     0.00000000    0.00000000    0.50000000       0.12500000
   3:     0.00000000    0.25000000    0.25000000       0.12500000
   4:     0.00000000    0.25000000    0.50000000       0.12500000
   5:     0.00000000    0.25000000    0.75000000       0.12500000
   6:     0.00000000    0.50000000    0.50000000       0.12500000
   7:     0.25000000    0.50000000    0.75000000       0.12500000

Wave functions: Plane wave expansion
  Cutoff energy: 500.000 eV
  Number of coefficients (min, max): 181, 222
  Pulay-stress correction: 0.000000 eV/Ang^3 (de/decut=0.000000)
  Using Numpy's FFT
  ScaLapack parameters: grid=1x1, blocksize=None
  Wavefunction extrapolation:
    Improved wavefunction reuse through dual PAW basis 

Occupation numbers: Fermi-Dirac:
  width: 0.1000  # eV
 

Eigensolver
   Davidson(niter=2) 

Densities:
  Coarse grid: 12*12*12 grid
  Fine grid: 24*24*24 grid
  Total Charge: 0.000000 

Density mixing:
  Method: separate
  Backend: pulay
  Linear mixing parameter: 0.25
  old densities: 8
  Damping of long wavelength oscillations: 100 

Hamiltonian:
  XC and Coulomb potentials evaluated on a 24*24*24 grid
  Using the PBE Exchange-Correlation functional
  External potential:
    NoExternalPotential
 

XC parameters: PBE with 2 nearest neighbor stencil

Memory estimate:
  Process memory now: 198.25 MiB
  Calculator: 2.04 MiB
    Density: 0.78 MiB
      Arrays: 0.34 MiB
      Localized functions: 0.23 MiB
      Mixer: 0.21 MiB
    Hamiltonian: 0.23 MiB
      Arrays: 0.22 MiB
      XC: 0.00 MiB
      Poisson: 0.00 MiB
      vbar: 0.00 MiB
    Wavefunctions: 1.02 MiB
      Arrays psit_nG: 0.54 MiB
      Eigensolver: 0.15 MiB
      Projections: 0.06 MiB
      Projectors: 0.18 MiB
      PW-descriptor: 0.09 MiB

Total number of cores used: 1

Number of atoms: 2
Number of atomic orbitals: 8
Number of bands in calculation: 20
Number of valence electrons: 8
Bands to converge: 20

... initialized

Initializing position-dependent things.

Creating initial wave functions:
  8 bands from LCAO basis set
  12 bands from random numbers

                   
                   
                   
                   
          C        
       C           
                   
                   
                   
                   

Atomic positions and initial magnetic moments

Positions:
   0 C      0.000000    0.000000    0.000000    ( 0.0000,  0.0000,  0.0000)
   1 C      0.806750    0.806750    0.806750    ( 0.0000,  0.0000,  0.0000)

Unit cell:
           periodic     x           y           z      points  spacing
  1. axis:    yes    0.000000    1.613500    1.613500    12     0.1553
  2. axis:    yes    1.613500    0.000000    1.613500    12     0.1553
  3. axis:    yes    1.613500    1.613500    0.000000    12     0.1553

  Lengths:   2.281834   2.281834   2.281834
  Angles:   60.000000  60.000000  60.000000

Effective grid spacing dv^(1/3) = 0.1694

     iter     time        total  log10-change:
                         energy   eigst   dens
iter:   1 02:36:18   -11.319582   +3.36       c
iter:   2 02:36:18   -11.320218   +2.11       c
iter:   3 02:36:18   -11.320220c  +1.38       c
iter:   4 02:36:18   -11.320220c  +1.10       c
iter:   5 02:36:18   -11.320220c  +0.93       c
iter:   6 02:36:18   -11.320220c  +0.38       c
iter:   7 02:36:18   -11.320220c  -0.09       c
iter:   8 02:36:19   -11.320220c  -0.43       c
iter:   9 02:36:19   -11.320220c  -0.72       c
iter:  10 02:36:19   -11.320220c  -0.88       c
iter:  11 02:36:19   -11.320220c  -0.96       c
iter:  12 02:36:19   -11.320220c  -0.99       c
iter:  13 02:36:19   -11.320220c  -0.98       c
iter:  14 02:36:19   -11.320220c  -0.98       c
iter:  15 02:36:19   -11.320220c  -0.95       c
iter:  16 02:36:19   -11.320220c  -0.93       c
iter:  17 02:36:19   -11.320220c  -0.97       c
iter:  18 02:36:19   -11.320220c  -1.00       c
iter:  19 02:36:19   -11.320220c  -1.11       c
iter:  20 02:36:19   -11.320220c  -1.36       c
iter:  21 02:36:19   -11.320220c  -1.51       c
iter:  22 02:36:19   -11.320220c  -1.58       c
iter:  23 02:36:20   -11.320220c  -1.63       c
iter:  24 02:36:20   -11.320220c  -1.67       c
iter:  25 02:36:20   -11.320220c  -1.74       c
iter:  26 02:36:20   -11.320220c  -1.86       c
iter:  27 02:36:20   -11.320220c  -1.93       c
iter:  28 02:36:20   -11.320220c  -2.01       c
iter:  29 02:36:20   -11.320220c  -2.04       c
iter:  30 02:36:20   -11.320220c  -2.15       c
iter:  31 02:36:20   -11.320220c  -2.21       c
iter:  32 02:36:20   -11.320220c  -2.26       c
iter:  33 02:36:20   -11.320220c  -2.29       c
iter:  34 02:36:20   -11.320220c  -2.35       c
iter:  35 02:36:20   -11.320220c  -2.42       c
iter:  36 02:36:20   -11.320220c  -2.45       c
iter:  37 02:36:21   -11.320220c  -2.54       c
iter:  38 02:36:21   -11.320220c  -2.56       c
iter:  39 02:36:21   -11.320220c  -2.66       c
iter:  40 02:36:21   -11.320220c  -2.73       c
iter:  41 02:36:21   -11.320220c  -2.75       c
iter:  42 02:36:21   -11.320220c  -2.87       c
iter:  43 02:36:21   -11.320220c  -2.94       c
iter:  44 02:36:21   -11.320220c  -2.98       c
iter:  45 02:36:21   -11.320220c  -3.00       c
iter:  46 02:36:21   -11.320220c  -3.07       c
iter:  47 02:36:21   -11.320220c  -3.15       c
iter:  48 02:36:21   -11.320220c  -3.25       c
iter:  49 02:36:21   -11.320220c  -3.36       c
iter:  50 02:36:21   -11.320220c  -3.41       c
iter:  51 02:36:22   -11.320220c  -3.51       c
iter:  52 02:36:22   -11.320220c  -3.49       c
iter:  53 02:36:22   -11.320220c  -3.64       c
iter:  54 02:36:22   -11.320220c  -3.69       c
iter:  55 02:36:22   -11.320220c  -3.80       c
iter:  56 02:36:22   -11.320220c  -3.86       c
iter:  57 02:36:22   -11.320220c  -3.88       c
iter:  58 02:36:22   -11.320220c  -4.00       c
iter:  59 02:36:22   -11.320220c  -4.06       c
iter:  60 02:36:22   -11.320220c  -4.11       c
iter:  61 02:36:22   -11.320220c  -4.18       c
iter:  62 02:36:22   -11.320220c  -4.38       c
iter:  63 02:36:22   -11.320220c  -4.47       c
iter:  64 02:36:22   -11.320220c  -4.52       c
iter:  65 02:36:23   -11.320220c  -4.62       c
iter:  66 02:36:23   -11.320220c  -4.66       c
iter:  67 02:36:23   -11.320220c  -4.69       c
iter:  68 02:36:23   -11.320220c  -4.78       c
iter:  69 02:36:23   -11.320220c  -4.86       c
iter:  70 02:36:23   -11.320220c  -4.92       c
iter:  71 02:36:23   -11.320220c  -5.00       c
iter:  72 02:36:23   -11.320220c  -5.18       c
iter:  73 02:36:23   -11.320220c  -5.35       c
iter:  74 02:36:23   -11.320220c  -5.40       c
iter:  75 02:36:23   -11.320220c  -5.50       c
iter:  76 02:36:23   -11.320220c  -5.65       c
iter:  77 02:36:23   -11.320220c  -5.73       c
iter:  78 02:36:23   -11.320220c  -5.80       c
iter:  79 02:36:24   -11.320220c  -5.85       c
iter:  80 02:36:24   -11.320220c  -6.00       c
iter:  81 02:36:24   -11.320220c  -6.06       c
iter:  82 02:36:24   -11.320220c  -6.13       c
iter:  83 02:36:24   -11.320220c  -6.17       c
iter:  84 02:36:24   -11.320220c  -6.23       c
iter:  85 02:36:24   -11.320220c  -6.33       c
iter:  86 02:36:24   -11.320220c  -6.35       c
iter:  87 02:36:24   -11.320220c  -6.39       c
iter:  88 02:36:24   -11.320220c  -6.46       c
iter:  89 02:36:24   -11.320220c  -6.47       c
iter:  90 02:36:24   -11.320220c  -6.52       c
iter:  91 02:36:24   -11.320220c  -6.62       c
iter:  92 02:36:24   -11.320220c  -6.68       c
iter:  93 02:36:24   -11.320220c  -6.74       c
iter:  94 02:36:25   -11.320220c  -6.90       c
iter:  95 02:36:25   -11.320220c  -7.04       c
iter:  96 02:36:25   -11.320220c  -7.13       c
iter:  97 02:36:25   -11.320220c  -7.20       c
iter:  98 02:36:25   -11.320220c  -7.27       c
iter:  99 02:36:25   -11.320220c  -7.36       c
iter: 100 02:36:25   -11.320220c  -7.42c      c

Converged after 100 iterations.

Dipole moment: (-1.857210, -1.857210, -1.857210) |e|*Ang

Energy contributions relative to reference atoms: (reference = -2055.256231)

Kinetic:        +57.171350
Potential:      -41.548711
External:        +0.000000
XC:             -26.955332
Entropy (-ST):   -0.000000
Local:           +0.012472
SIC:             +0.000000
--------------------------
Free energy:    -11.320220
Extrapolated:   -11.320220

Showing only first 2 kpts
 Kpt  Band  Eigenvalues  Occupancy
  0     2     17.74413    2.00000
  0     3     17.74430    2.00000
  0     4     24.17783    0.00000
  0     5     24.17783    0.00000

  1     2     15.40728    2.00000
  1     3     15.40743    2.00000
  1     4     27.01170    0.00000
  1     5     27.01189    0.00000


Fermi level: 19.61555

Gap: 5.259 eV
Transition (v -> c):
  (s=0, k=0, n=3, [0.00, 0.00, 0.00]) -> (s=0, k=3, n=4, [0.00, 0.25, 0.25])
Direct/indirect transitions are different
Direct gap: 6.434 eV
Transition at: (s=0, k=0, n=3, [0.00, 0.00, 0.00])
