
  ___ ___ ___ _ _ _  
 |   |   |_  | | | | 
 | | | | | . | | | | 
 |__ |  _|___|_____|  25.7.0
 |___|_|             

User:   stepan@C3MP-C019202L
Date:   Wed Oct 22 20:28:00 2025
Arch:   x86_64
Pid:    646137
CWD:    /home/stepan/github/WannierBerri-tutorial/tutorials/8_GPAW/3.MnTe
Python: 3.12.12
gpaw:   /home/stepan/github/WannierBerri-tutorial/.conda/lib/python3.12/site-packages/gpaw
_gpaw:  /home/stepan/github/WannierBerri-tutorial/.conda/lib/python3.12/site-packages/
        _gpaw.cpython-312-x86_64-linux-gnu.so
ase:    /home/stepan/github/WannierBerri-tutorial/.conda/lib/python3.12/site-packages/ase (version 3.26.0)
numpy:  /home/stepan/github/WannierBerri-tutorial/.conda/lib/python3.12/site-packages/numpy (version 2.3.4)
scipy:  /home/stepan/github/WannierBerri-tutorial/.conda/lib/python3.12/site-packages/scipy (version 1.16.2)
libxc:  5.2.3
units:  Angstrom and eV
cores: 1
OpenMP: False
OMP_NUM_THREADS: 1

Input parameters:
  convergence: {bands: 24}
  gpts: [24 24 40]
  kpts: [[ 0.66666667 -0.33333333  0.        ],
         [ 0.625      -0.3125      0.        ],
         [ 0.58333333 -0.29166667  0.        ],
         ...,
         [ 0.42857143  0.          0.37054454],
         [ 0.46428571  0.          0.37054454],
         [ 0.5         0.          0.37054454]]
  mixer: {backend: pulay,
          beta: 0.25,
          method: sum,
          nmaxold: 8,
          weight: 100}
  mode: {ecut: 600.0,
         name: pw}
  nbands: 30
  random: True
  setups: {Mn: :d,4.0}
  symmetry: off
  xc: PBE

Initialize ...

species:
  Mn:
    name: Manganese
    id: 00ec47dccfe5670b984398596635e8a7
    Z: 25.0
    valence: 15
    core: 10
    charge: 0.0
    Hubbard: {U: 4.0,  # eV
              l: 2,
              scale: True}
    file: /home/stepan/gpaw-data/gpaw-setups-24.11.0/Mn.PBE.gz
    compensation charges: {type: gauss,
                           rc: 0.38,
                           lmax: 2}
    cutoffs: {filter: 2.14,
              core: 0.86}
    projectors:
      #              energy  rcut
      - 3s(2.00)   -85.859   1.275
      - 4s(2.00)    -5.106   1.275
      - 3p(6.00)   -54.597   1.281
      - 4p(0.00)    -1.371   1.281
      - 3d(5.00)    -6.771   1.138
      -  d          20.441   1.138
  
    # Using partial waves for Mn as LCAO basis

  Te:
    name: Tellurium
    id: e44b9ef4772d7e5a1c6a47e6d6496588
    Z: 52.0
    valence: 6
    core: 46
    charge: 0.0
    file: /home/stepan/gpaw-data/gpaw-setups-24.11.0/Te.PBE.gz
    compensation charges: {type: gauss,
                           rc: 0.36,
                           lmax: 2}
    cutoffs: {filter: 2.09,
              core: 3.17}
    projectors:
      #              energy  rcut
      - 5s(2.00)   -15.089   1.180
      - 5p(4.00)    -5.955   1.196
      -  s          12.123   1.180
      -  p          21.256   1.196
      -  d           0.000   1.238
  
    # Using partial waves for Te as LCAO basis

Reference energy: -432609.543013  # eV

Spin-polarized calculation.
Initial magnetic moment: 0.000000

Convergence criteria:
 Maximum [total energy] change in last 3 cyles: 0.0005 eV / valence electron
 Maximum integral of absolute [dens]ity change: 0.0001 electrons / valence electron
 Maximum integral of absolute [eigenst]ate change: 4e-08 eV^2 / valence electron
 Maximum number of scf [iter]ations: 333
 (Square brackets indicate name in SCF output, whereas a 'c' in
 the SCF output indicates the quantity has converged.)

Symmetries present (total): 1

  ( 1  0  0)
  ( 0  1  0)
  ( 0  0  1)

61 k-points
61 k-points in the irreducible part of the Brillouin zone
       k-points in crystal coordinates                weights
   0:     0.66666667   -0.33333333    0.00000000       0.01639344
   1:     0.62500000   -0.31250000    0.00000000       0.01639344
   2:     0.58333333   -0.29166667    0.00000000       0.01639344
   3:     0.54166667   -0.27083333    0.00000000       0.01639344
   4:     0.50000000   -0.25000000    0.00000000       0.01639344
   5:     0.45833333   -0.22916667    0.00000000       0.01639344
   6:     0.41666667   -0.20833333    0.00000000       0.01639344
   7:     0.37500000   -0.18750000    0.00000000       0.01639344
   8:     0.33333333   -0.16666667    0.00000000       0.01639344
   9:     0.29166667   -0.14583333    0.00000000       0.01639344
          ...
  60:     0.50000000    0.00000000    0.37054454       0.01639344

Wave functions: Plane wave expansion
  Cutoff energy: 600.000 eV
  Number of coefficients (min, max): 3266, 3319
  Pulay-stress correction: 0.000000 eV/Ang^3 (de/decut=0.000000)
  Using Numpy's FFT
  ScaLapack parameters: grid=1x1, blocksize=None
  Wavefunction extrapolation:
    Improved wavefunction reuse through dual PAW basis 

Occupation numbers: Fermi-Dirac:
  width: 0.1000  # eV
 

Eigensolver
   Davidson(niter=2) 

Densities:
  Coarse grid: 24*24*40 grid
  Fine grid: 48*48*80 grid
  Total Charge: 0.000000 

Density mixing:
  Method: sum
  Backend: pulay
  Linear mixing parameter: 0.25
  old densities: 8
  Damping of long wavelength oscillations: 100 

Hamiltonian:
  XC and Coulomb potentials evaluated on a 48*48*80 grid
  Using the PBE Exchange-Correlation functional
  External potential:
    NoExternalPotential
 

XC parameters: PBE with 2 nearest neighbor stencil

Memory estimate:
  Process memory now: 1086.33 MiB
  Calculator: 243.32 MiB
    Density: 13.33 MiB
      Arrays: 6.15 MiB
      Localized functions: 4.37 MiB
      Mixer: 2.81 MiB
    Hamiltonian: 4.68 MiB
      Arrays: 4.57 MiB
      XC: 0.00 MiB
      Poisson: 0.00 MiB
      vbar: 0.11 MiB
    Wavefunctions: 225.31 MiB
      Arrays psit_nG: 185.36 MiB
      Eigensolver: 1.91 MiB
      Projections: 3.46 MiB
      Projectors: 30.61 MiB
      PW-descriptor: 3.97 MiB

Total number of cores used: 1

Number of atoms: 4
Number of atomic orbitals: 34
Number of bands in calculation: 30
Number of valence electrons: 42
Bands to converge: 24

... initialized

Initializing position-dependent things.

Creating initial wave functions:
  30 bands from LCAO basis set

                       
                       
                       
                       
             Te        
                       
                       
       Mn              
         Te            
                       
                       
       Mn              
                       
                       
                       
                       

Atomic positions and initial magnetic moments

Positions:
   0 Mn     0.000000    0.000000    0.000000    ( 0.0000,  0.0000,  4.7000)
   1 Mn     0.000000    0.000000    3.326000    ( 0.0000,  0.0000, -4.7000)
   2 Te     0.000000    2.386766    1.663000    ( 0.0000,  0.0000,  0.0000)
   3 Te     2.067000    1.193383    4.989000    ( 0.0000,  0.0000,  0.0000)

Unit cell:
           periodic     x           y           z      points  spacing
  1. axis:    yes    4.134000    0.000000    0.000000    24     0.1492
  2. axis:    yes   -2.067000    3.580149    0.000000    24     0.1492
  3. axis:    yes    0.000000    0.000000    6.652000    40     0.1663

  Lengths:   4.134000   4.134000   6.652000
  Angles:   90.000000  90.000000 120.000000

Effective grid spacing dv^(1/3) = 0.1623

     iter     time        total  log10-change:  magmom
                         energy   eigst   dens
iter:   1 20:28:37   -22.209778   +0.68       c   +0.0000
iter:   2 20:28:56   -22.289727   -0.08       c   +0.0000
iter:   3 20:29:16   -22.306951   -0.75       c   +0.0000
iter:   4 20:29:35   -22.311470   -1.38       c   +0.0000
iter:   5 20:29:54   -22.312733c  -1.99       c   +0.0000
iter:   6 20:30:14   -22.313101c  -2.57       c   +0.0000
iter:   7 20:30:34   -22.313215c  -3.10       c   +0.0000
iter:   8 20:30:57   -22.313251c  -3.61       c   +0.0000
iter:   9 20:31:21   -22.313263c  -4.09       c   +0.0000
iter:  10 20:31:46   -22.313268c  -4.56       c   +0.0000
iter:  11 20:32:12   -22.313269c  -5.01       c   +0.0000
iter:  12 20:32:37   -22.313270c  -5.46       c   +0.0000
iter:  13 20:33:01   -22.313270c  -5.89       c   +0.0000
iter:  14 20:33:21   -22.313270c  -6.32       c   +0.0000
iter:  15 20:33:41   -22.313270c  -6.74       c   +0.0000
iter:  16 20:33:59   -22.313270c  -7.15       c   +0.0000
iter:  17 20:34:19   -22.313270c  -7.55c      c   +0.0000

Converged after 17 iterations.

Dipole moment: (0.000000, 0.000000, 0.000000) |e|*Ang

Total magnetic moment: (0.000000, 0.000000, 0.000000)
Local magnetic moments:
   0 Mn ( 0.000000,  0.000000,  4.404368)
   1 Mn ( 0.000000,  0.000000, -4.404368)
   2 Te ( 0.000000,  0.000000, -0.000000)
   3 Te ( 0.000000,  0.000000, -0.000000)

Energy contributions relative to reference atoms: (reference = -432609.543013)

Kinetic:        +64.559153
Potential:      -52.325842
External:        +0.000000
XC:             -35.054808
Entropy (-ST):   -0.003184
Local:           +0.509819
SIC:             +0.000000
--------------------------
Free energy:    -22.314862
Extrapolated:   -22.313270

Spin contamination: 4.784093 electrons
Showing only first 2 kpts
                      Up                     Down
 Kpt  Band  Eigenvalues  Occupancy  Eigenvalues  Occupancy
  0    19      4.16859    1.00000      4.16859    1.00000
  0    20      4.16859    1.00000      4.16859    1.00000
  0    21      7.24766    0.02595      7.24766    0.02595
  0    22      9.40899    0.00000      9.40899    0.00000

  1    19      4.03153    1.00000      4.03153    1.00000
  1    20      4.34668    1.00000      4.34668    1.00000
  1    21      7.29210    0.01680      7.29210    0.01680
  1    22      9.34534    0.00000      9.34534    0.00000


Fermi level: 6.88515

Gap: 0.808 eV
Transition (v -> c):
  (s=0, k=47, n=20, [0.04, 0.00, 0.37]) -> (s=0, k=0, n=21, [0.67, -0.33, 0.00])
Direct/indirect transitions are different
Direct gap: 1.938 eV
Transition at: (s=0, k=46, n=20, [0.00, 0.00, 0.37])
